
     Program PWSCF v.7.5 starts on 22Apr2026 at 15:14: 1

     This program is part of the open-source Quantum ESPRESSO suite
     for quantum simulation of materials; please cite
         "P. Giannozzi et al., J. Phys.:Condens. Matter 21 395502 (2009);
         "P. Giannozzi et al., J. Phys.:Condens. Matter 29 465901 (2017);
         "P. Giannozzi et al., J. Chem. Phys. 152 154105 (2020);
          URL http://www.quantum-espresso.org",
     in publications or presentations arising from this work. More details at
     http://www.quantum-espresso.org/quote

     Parallel version (MPI), running on     1 processors

     MPI processes distributed on     1 nodes
     237849 MiB available memory on the printing compute node when the environment starts

     Reading input from pw.in

     Current dimensions of program PWSCF are:
     Max number of different atomic species (ntypx) = 10
     Max number of k-points (npk) =  40000
     Max angular momentum in pseudopotentials (lmaxx) =  4

     Exact exchange band parallelism type set to band_pairs


     gamma-point specific algorithms are used
     Message from routine setup:
     using ibrav=0 with symmetry is DISCOURAGED, use correct ibrav instead

     Subspace diagonalization in iterative solution of the eigenvalue problem:
     a serial algorithm will be used


     G-vector sticks info
     --------------------
     sticks:   dense  smooth     PW     G-vecs:    dense   smooth      PW
     Sum         569     569    145                10131    10131    1309

     Using Slab Decomposition



     bravais-lattice index     =            0
     lattice parameter (alat)  =       9.4487  a.u.
     unit-cell volume          =     843.5585 (a.u.)^3
     number of atoms/cell      =            2
     number of atomic types    =            1
     number of electrons       =        12.00 (up:   7.00, down:   5.00)
     number of Kohn-Sham states=            7
     kinetic-energy cutoff     =      20.0000  Ry
     charge density cutoff     =      80.0000  Ry
     scf convergence threshold =      1.0E-08
     mixing beta               =       0.7000
     number of iterations used =            8  plain     mixing
     Exchange-correlation= PBE
                           (   1   4   3   4   0   0   0)

     GPU acceleration is ACTIVE.  4 visible GPUs per MPI rank
     GPU-aware MPI enabled


     celldm(1)=   9.448693  celldm(2)=   0.000000  celldm(3)=   0.000000
     celldm(4)=   0.000000  celldm(5)=   0.000000  celldm(6)=   0.000000

     crystal axes: (cart. coord. in units of alat)
               a(1) = (   1.000000   0.000000   0.000000 )
               a(2) = (   0.000000   1.000000   0.000000 )
               a(3) = (   0.000000   0.000000   1.000000 )

     reciprocal axes: (cart. coord. in units 2 pi/alat)
               b(1) = (  1.000000  0.000000  0.000000 )
               b(2) = (  0.000000  1.000000  0.000000 )
               b(3) = (  0.000000  0.000000  1.000000 )


     PseudoPot. # 1 for O  read from file:
     /global/homes/v/vwzyu/sg15/O_ONCV_PBE-1.2.upf
     MD5 check sum: e6cea32d42492033368c8692283b9b8a
     Pseudo is Norm-conserving, Zval =  6.0
     Generated using ONCVPSP code by D. R. Hamann
     Using radial grid of  602 points,  4 beta functions with:
                l(1) =   0
                l(2) =   0
                l(3) =   1
                l(4) =   1

     atomic species   valence    mass     pseudopotential
     O                 6.00    15.99900     O ( 1.00)

     Starting magnetic structure
     atomic species   magnetization
     O               0.000

      8 Sym. Ops. (no inversion) found



   Cartesian axes

     site n.     atom                  positions (alat units)
         1        O      tau(   1) = (   0.0000000   0.0000000   0.0000000  )
         2        O      tau(   2) = (   0.0000000   0.0000000   0.2419984  )

     number of k points=     1
                       cart. coord. in units 2pi/alat
        k(    1) = (   0.0000000   0.0000000   0.0000000), wk =   1.0000000

     Dense  grid:     5066 G-vectors     FFT dimensions: (  27,  27,  27)

     Estimated max dynamical RAM per process >       6.60 MB
     Generating pointlists ...
     new r_m :   0.0998 (alat units)  0.9432 (a.u.) for type    1

     Initial potential from superposition of free atoms

     starting charge      11.9981, renormalised to      12.0000

     negative rho (up, down):  8.987E-02 8.987E-02
     Starting wfcs are random

     total cpu time spent up to now is        1.0 secs

     Self-consistent Calculation

     iteration #  1     ecut=    20.00 Ry     beta= 0.70
     Davidson diagonalization with overlap
     ethr =  1.00E-02,  avg # of iterations = 11.0

     negative rho (up, down):  0.000E+00 1.378E-02

     total cpu time spent up to now is        1.0 secs

     total energy              =     -59.27427680 Ry
     estimated scf accuracy    <       1.66343187 Ry

     total magnetization       =     2.00 Bohr mag/cell
     absolute magnetization    =     2.02 Bohr mag/cell

     iteration #  2     ecut=    20.00 Ry     beta= 0.70
     Davidson diagonalization with overlap
     ethr =  1.00E-02,  avg # of iterations =  2.0

     negative rho (up, down):  0.000E+00 5.422E-03

     total cpu time spent up to now is        1.0 secs

     total energy              =     -59.84620564 Ry
     estimated scf accuracy    <       0.14796293 Ry

     total magnetization       =     2.00 Bohr mag/cell
     absolute magnetization    =     2.03 Bohr mag/cell

     iteration #  3     ecut=    20.00 Ry     beta= 0.70
     Davidson diagonalization with overlap
     ethr =  1.23E-03,  avg # of iterations =  4.0

     negative rho (up, down):  0.000E+00 5.011E-03

     total cpu time spent up to now is        1.1 secs

     total energy              =     -60.26494007 Ry
     estimated scf accuracy    <       0.34321872 Ry

     total magnetization       =     2.00 Bohr mag/cell
     absolute magnetization    =     2.01 Bohr mag/cell

     iteration #  4     ecut=    20.00 Ry     beta= 0.70
     Davidson diagonalization with overlap
     ethr =  1.23E-03,  avg # of iterations =  1.0

     negative rho (up, down):  0.000E+00 3.769E-05

     total cpu time spent up to now is        1.1 secs

     total energy              =     -60.17164070 Ry
     estimated scf accuracy    <       0.19984225 Ry

     total magnetization       =     2.00 Bohr mag/cell
     absolute magnetization    =     2.01 Bohr mag/cell

     iteration #  5     ecut=    20.00 Ry     beta= 0.70
     Davidson diagonalization with overlap
     ethr =  1.23E-03,  avg # of iterations =  2.0

     negative rho (up, down):  0.000E+00 7.616E-07

     total cpu time spent up to now is        1.1 secs

     total energy              =     -60.20516194 Ry
     estimated scf accuracy    <       0.00197193 Ry

     total magnetization       =     2.00 Bohr mag/cell
     absolute magnetization    =     2.04 Bohr mag/cell

     iteration #  6     ecut=    20.00 Ry     beta= 0.70
     Davidson diagonalization with overlap
     ethr =  1.64E-05,  avg # of iterations =  6.0

     negative rho (up, down):  0.000E+00 3.196E-07

     total cpu time spent up to now is        1.1 secs

     total energy              =     -60.20551087 Ry
     estimated scf accuracy    <       0.00053187 Ry

     total magnetization       =     2.00 Bohr mag/cell
     absolute magnetization    =     2.04 Bohr mag/cell

     iteration #  7     ecut=    20.00 Ry     beta= 0.70
     Davidson diagonalization with overlap
     ethr =  4.43E-06,  avg # of iterations =  2.0

     total cpu time spent up to now is        1.1 secs

     total energy              =     -60.20561274 Ry
     estimated scf accuracy    <       0.00018836 Ry

     total magnetization       =     2.00 Bohr mag/cell
     absolute magnetization    =     2.04 Bohr mag/cell

     iteration #  8     ecut=    20.00 Ry     beta= 0.70
     Davidson diagonalization with overlap
     ethr =  1.57E-06,  avg # of iterations =  2.0

     negative rho (up, down):  4.986E-07 0.000E+00

     total cpu time spent up to now is        1.1 secs

     total energy              =     -60.20565042 Ry
     estimated scf accuracy    <       0.00000146 Ry

     total magnetization       =     2.00 Bohr mag/cell
     absolute magnetization    =     2.04 Bohr mag/cell

     iteration #  9     ecut=    20.00 Ry     beta= 0.70
     Davidson diagonalization with overlap
     ethr =  1.22E-08,  avg # of iterations =  2.5

     total cpu time spent up to now is        1.1 secs

     total energy              =     -60.20565125 Ry
     estimated scf accuracy    <       0.00000043 Ry

     total magnetization       =     2.00 Bohr mag/cell
     absolute magnetization    =     2.04 Bohr mag/cell

     iteration # 10     ecut=    20.00 Ry     beta= 0.70
     Davidson diagonalization with overlap
     ethr =  3.59E-09,  avg # of iterations =  2.5

     total cpu time spent up to now is        1.2 secs

     total energy              =     -60.20565139 Ry
     estimated scf accuracy    <       0.00000001 Ry

     total magnetization       =     2.00 Bohr mag/cell
     absolute magnetization    =     2.04 Bohr mag/cell

     iteration # 11     ecut=    20.00 Ry     beta= 0.70
     Davidson diagonalization with overlap
     ethr =  1.12E-10,  avg # of iterations =  4.5

     Magnetic moment per site  (integrated on atomic sphere of radius R)
     atom   1 (R=0.100)  charge=  2.3744  magn=  0.3843
     atom   2 (R=0.100)  charge=  2.4506  magn=  0.3877

     total cpu time spent up to now is        1.2 secs

     End of self-consistent calculation

 ------ SPIN UP ------------


          k = 0.0000 0.0000 0.0000 (   655 PWs)   bands (ev):

   -34.7871 -22.3994 -11.4181 -11.3137 -11.3137  -3.4696  -3.4696

 ------ SPIN DOWN ----------


          k = 0.0000 0.0000 0.0000 (   655 PWs)   bands (ev):

   -33.6844 -20.6796 -10.5959  -9.6783  -9.6782  -1.3925  -1.3924

     highest occupied, lowest unoccupied level (ev):    -3.4696   -1.3925

!    total energy              =     -60.20565140 Ry
     estimated scf accuracy    <          1.9E-09 Ry

     The total energy is the sum of the following terms:
     one-electron contribution =     -76.48742499 Ry
     hartree contribution      =      39.88771640 Ry
     xc contribution           =     -12.87023087 Ry
     ewald contribution        =     -10.73571195 Ry

     total magnetization       =     2.00 Bohr mag/cell
     absolute magnetization    =     2.04 Bohr mag/cell

     convergence has been achieved in  11 iterations

     Writing all to output data dir ./pwscf.save/ :
     XML data file, charge density, pseudopotentials, collected wavefunctions

     init_run     :      0.10s CPU      0.81s WALL (       1 calls)
     electrons    :      0.16s CPU      0.22s WALL (       1 calls)

     Called by init_run:
     wfcinit      :      0.03s CPU      0.46s WALL (       1 calls)
     potinit      :      0.01s CPU      0.01s WALL (       1 calls)
     hinit0       :      0.06s CPU      0.29s WALL (       1 calls)

     Called by electrons:
     c_bands      :      0.08s CPU      0.14s WALL (      11 calls)
     sum_band     :      0.01s CPU      0.02s WALL (      11 calls)
     v_of_rho     :      0.02s CPU      0.02s WALL (      12 calls)
     mix_rho      :      0.04s CPU      0.04s WALL (      11 calls)

     Called by c_bands:
     init_us_2    :      0.01s CPU      0.01s WALL (      46 calls)
     regterg      :      0.08s CPU      0.13s WALL (      22 calls)

     Called by *egterg:
     rdiaghg      :      0.02s CPU      0.33s WALL (     101 calls)
                                        0.33s GPU  (     101 calls)
     h_psi        :      0.05s CPU      0.22s WALL (     103 calls)
     g_psi        :      0.00s CPU      0.00s WALL (      79 calls)

     Called by h_psi:
     h_psi:calbec :      0.02s CPU      0.15s WALL (     103 calls)
     vloc_psi     :      0.02s CPU      0.06s WALL (     103 calls)
                                        0.06s GPU  (     103 calls)
     add_vuspsi   :      0.00s CPU      0.00s WALL (     103 calls)

     General routines
     calbec       :      0.02s CPU      0.15s WALL (     103 calls)
     fft          :      0.04s CPU      0.27s WALL (     155 calls)
                                        0.27s GPU  (     155 calls)
     ffts         :      0.00s CPU      0.00s WALL (      11 calls)
                                        0.00s GPU  (      11 calls)
     fftw         :      0.01s CPU      0.05s WALL (     294 calls)
                                        0.05s GPU  (     294 calls)

     Parallel routines

     PWSCF        :      0.27s CPU      1.20s WALL


   This run was terminated on:  15:14: 3  22Apr2026

=------------------------------------------------------------------------------=
   JOB DONE.
=------------------------------------------------------------------------------=
