
     Program PWSCF v.7.5 starts on 22Apr2026 at 15:17:37

     This program is part of the open-source Quantum ESPRESSO suite
     for quantum simulation of materials; please cite
         "P. Giannozzi et al., J. Phys.:Condens. Matter 21 395502 (2009);
         "P. Giannozzi et al., J. Phys.:Condens. Matter 29 465901 (2017);
         "P. Giannozzi et al., J. Chem. Phys. 152 154105 (2020);
          URL http://www.quantum-espresso.org",
     in publications or presentations arising from this work. More details at
     http://www.quantum-espresso.org/quote

     Parallel version (MPI), running on     1 processors

     MPI processes distributed on     1 nodes
     237526 MiB available memory on the printing compute node when the environment starts

     Reading input from pw.in

     Current dimensions of program PWSCF are:
     Max number of different atomic species (ntypx) = 10
     Max number of k-points (npk) =  40000
     Max angular momentum in pseudopotentials (lmaxx) =  4

     Exact exchange band parallelism type set to band_pairs


     gamma-point specific algorithms are used
     Message from routine setup:
     using ibrav=0 with symmetry is DISCOURAGED, use correct ibrav instead

     Subspace diagonalization in iterative solution of the eigenvalue problem:
     a serial algorithm will be used


     G-vector sticks info
     --------------------
     sticks:   dense  smooth     PW     G-vecs:    dense   smooth      PW
     Sum        2885    2885    725               117161   117161   14771

     Using Slab Decomposition



     bravais-lattice index     =            0
     lattice parameter (alat)  =      13.4851  a.u.
     unit-cell volume          =    2452.2626 (a.u.)^3
     number of atoms/cell      =           63
     number of atomic types    =            2
     number of electrons       =       254.00 (up: 128.00, down: 126.00)
     number of Kohn-Sham states=          128
     kinetic-energy cutoff     =      50.0000  Ry
     charge density cutoff     =     200.0000  Ry
     scf convergence threshold =      1.0E-08
     mixing beta               =       0.7000
     number of iterations used =            8  plain     mixing
     Exchange-correlation= PBE
                           (   1   4   3   4   0   0   0)

     GPU acceleration is ACTIVE.  4 visible GPUs per MPI rank
     GPU-aware MPI enabled


     celldm(1)=  13.485146  celldm(2)=   0.000000  celldm(3)=   0.000000
     celldm(4)=   0.000000  celldm(5)=   0.000000  celldm(6)=   0.000000

     crystal axes: (cart. coord. in units of alat)
               a(1) = (   1.000000   0.000000   0.000000 )
               a(2) = (   0.000000   1.000000   0.000000 )
               a(3) = (   0.000000   0.000000   1.000000 )

     reciprocal axes: (cart. coord. in units 2 pi/alat)
               b(1) = (  1.000000  0.000000  0.000000 )
               b(2) = (  0.000000  1.000000  0.000000 )
               b(3) = (  0.000000  0.000000  1.000000 )


     PseudoPot. # 1 for C  read from file:
     /global/homes/v/vwzyu/sg15/C_ONCV_PBE-1.2.upf
     MD5 check sum: d60b57d9bdca4133f5fde4b584ee909d
     Pseudo is Norm-conserving, Zval =  4.0
     Generated using ONCVPSP code by D. R. Hamann
     Using radial grid of  602 points,  4 beta functions with:
                l(1) =   0
                l(2) =   0
                l(3) =   1
                l(4) =   1

     PseudoPot. # 2 for N  read from file:
     /global/homes/v/vwzyu/sg15/N_ONCV_PBE-1.2.upf
     MD5 check sum: 5312fdf34e96954e02a33bdc911c617a
     Pseudo is Norm-conserving, Zval =  5.0
     Generated using ONCVPSP code by D. R. Hamann
     Using radial grid of  602 points,  4 beta functions with:
                l(1) =   0
                l(2) =   0
                l(3) =   1
                l(4) =   1

     atomic species   valence    mass     pseudopotential
     C                 4.00    12.01100     C ( 1.00)
     N                 5.00    14.00700     N ( 1.00)

     Starting magnetic structure
     atomic species   magnetization
     C               0.000
     N               0.000

      6 Sym. Ops. (no inversion) found



   Cartesian axes

     site n.     atom                  positions (alat units)
         1        C      tau(   1) = (   0.9999500   0.9999500   0.9999500  )
         2        C      tau(   2) = (   0.1249400   0.1249400   0.1249400  )
         3        C      tau(   3) = (   0.9991700   0.2503400   0.2503400  )
         4        C      tau(   4) = (   0.1236100   0.3749800   0.3749800  )
         5        C      tau(   5) = (   0.2503400   0.9991700   0.2503400  )
         6        C      tau(   6) = (   0.3749800   0.1236100   0.3749800  )
         7        C      tau(   7) = (   0.2503400   0.2503400   0.9991700  )
         8        C      tau(   8) = (   0.3749800   0.3749800   0.1236100  )
         9        C      tau(   9) = (   0.0014300   0.0014300   0.5010300  )
        10        C      tau(  10) = (   0.1251000   0.1251000   0.6250500  )
        11        C      tau(  11) = (   0.0009300   0.2494900   0.7496300  )
        12        C      tau(  12) = (   0.1260800   0.3754000   0.8741000  )
        13        C      tau(  13) = (   0.2494900   0.0009300   0.7496300  )
        14        C      tau(  14) = (   0.3754000   0.1260800   0.8741000  )
        15        C      tau(  15) = (   0.2484300   0.2484300   0.4997200  )
        16        C      tau(  16) = (   0.3751800   0.3751800   0.6189900  )
        17        C      tau(  17) = (   0.0014300   0.5010300   0.0014300  )
        18        C      tau(  18) = (   0.1251000   0.6250500   0.1251000  )
        19        C      tau(  19) = (   0.0009300   0.7496300   0.2494900  )
        20        C      tau(  20) = (   0.1260800   0.8741000   0.3754000  )
        21        C      tau(  21) = (   0.2484300   0.4997200   0.2484300  )
        22        C      tau(  22) = (   0.3751800   0.6189900   0.3751800  )
        23        C      tau(  23) = (   0.2494900   0.7496300   0.0009300  )
        24        C      tau(  24) = (   0.3754000   0.8741000   0.1260800  )
        25        C      tau(  25) = (   0.9988700   0.5007300   0.5007300  )
        26        C      tau(  26) = (   0.1250400   0.6251200   0.6251200  )
        27        C      tau(  27) = (   0.9996100   0.7498400   0.7498400  )
        28        C      tau(  28) = (   0.1249100   0.8749100   0.8749100  )
        29        C      tau(  29) = (   0.2521600   0.5014200   0.7476800  )
        30        C      tau(  30) = (   0.3774900   0.6266200   0.8730700  )
        31        C      tau(  31) = (   0.2521600   0.7476800   0.5014200  )
        32        C      tau(  32) = (   0.3774900   0.8730700   0.6266200  )
        33        C      tau(  33) = (   0.5010300   0.0014300   0.0014300  )
        34        C      tau(  34) = (   0.6250500   0.1251000   0.1251000  )
        35        C      tau(  35) = (   0.4997200   0.2484300   0.2484300  )
        36        C      tau(  36) = (   0.6189900   0.3751800   0.3751800  )
        37        C      tau(  37) = (   0.7496300   0.0009300   0.2494900  )
        38        C      tau(  38) = (   0.8741000   0.1260800   0.3754000  )
        39        C      tau(  39) = (   0.7496300   0.2494900   0.0009300  )
        40        C      tau(  40) = (   0.8741000   0.3754000   0.1260800  )
        41        C      tau(  41) = (   0.5007300   0.9988700   0.5007300  )
        42        C      tau(  42) = (   0.6251200   0.1250400   0.6251200  )
        43        C      tau(  43) = (   0.5014200   0.2521600   0.7476800  )
        44        C      tau(  44) = (   0.6266200   0.3774900   0.8730700  )
        45        C      tau(  45) = (   0.7498400   0.9996100   0.7498400  )
        46        C      tau(  46) = (   0.8749100   0.1249100   0.8749100  )
        47        C      tau(  47) = (   0.7476800   0.2521600   0.5014200  )
        48        C      tau(  48) = (   0.8730700   0.3774900   0.6266200  )
        49        C      tau(  49) = (   0.5007300   0.5007300   0.9988700  )
        50        C      tau(  50) = (   0.6251200   0.6251200   0.1250400  )
        51        C      tau(  51) = (   0.5014200   0.7476800   0.2521600  )
        52        C      tau(  52) = (   0.6266200   0.8730700   0.3774900  )
        53        C      tau(  53) = (   0.7476800   0.5014200   0.2521600  )
        54        C      tau(  54) = (   0.8730700   0.6266200   0.3774900  )
        55        C      tau(  55) = (   0.7498400   0.7498400   0.9996100  )
        56        C      tau(  56) = (   0.8749100   0.8749100   0.1249100  )
        57        N      tau(  57) = (   0.4870500   0.4870500   0.4870500  )
        58        C      tau(  58) = (   0.4921200   0.7607800   0.7607800  )
        59        C      tau(  59) = (   0.6237400   0.8746900   0.8746900  )
        60        C      tau(  60) = (   0.7607800   0.4921200   0.7607800  )
        61        C      tau(  61) = (   0.8746900   0.6237400   0.8746900  )
        62        C      tau(  62) = (   0.7607800   0.7607800   0.4921200  )
        63        C      tau(  63) = (   0.8746900   0.8746900   0.6237400  )

     number of k points=     1
                       cart. coord. in units 2pi/alat
        k(    1) = (   0.0000000   0.0000000   0.0000000), wk =   1.0000000

     Dense  grid:    58581 G-vectors     FFT dimensions: (  64,  64,  64)

     Estimated max dynamical RAM per process >     231.06 MB
     Generating pointlists ...
     new r_m :   0.0850 (alat units)  1.1459 (a.u.) for type    1
     new r_m :   0.0850 (alat units)  1.1459 (a.u.) for type    2

     Initial potential from superposition of free atoms

     starting charge     252.5655, renormalised to     254.0000
     Starting wfcs are random

     total cpu time spent up to now is        0.7 secs

     Self-consistent Calculation

     iteration #  1     ecut=    50.00 Ry     beta= 0.70
     Davidson diagonalization with overlap
     ethr =  1.00E-02,  avg # of iterations = 11.5

     total cpu time spent up to now is        1.0 secs

     total energy              =    -723.32139978 Ry
     estimated scf accuracy    <       3.57818139 Ry

     total magnetization       =     2.00 Bohr mag/cell
     absolute magnetization    =     2.27 Bohr mag/cell

     iteration #  2     ecut=    50.00 Ry     beta= 0.70
     Davidson diagonalization with overlap
     ethr =  1.41E-03,  avg # of iterations =  3.5

     total cpu time spent up to now is        1.2 secs

     total energy              =    -723.75811520 Ry
     estimated scf accuracy    <       0.28828832 Ry

     total magnetization       =     2.00 Bohr mag/cell
     absolute magnetization    =     2.21 Bohr mag/cell

     iteration #  3     ecut=    50.00 Ry     beta= 0.70
     Davidson diagonalization with overlap
     ethr =  1.13E-04,  avg # of iterations =  5.5

     total cpu time spent up to now is        1.4 secs

     total energy              =    -723.81986275 Ry
     estimated scf accuracy    <       0.40674830 Ry

     total magnetization       =     2.00 Bohr mag/cell
     absolute magnetization    =     2.15 Bohr mag/cell

     iteration #  4     ecut=    50.00 Ry     beta= 0.70
     Davidson diagonalization with overlap
     ethr =  1.13E-04,  avg # of iterations =  5.0

     total cpu time spent up to now is        1.5 secs

     total energy              =    -723.91185215 Ry
     estimated scf accuracy    <       0.00443704 Ry

     total magnetization       =     2.00 Bohr mag/cell
     absolute magnetization    =     2.18 Bohr mag/cell

     iteration #  5     ecut=    50.00 Ry     beta= 0.70
     Davidson diagonalization with overlap
     ethr =  1.75E-06,  avg # of iterations =  6.5

     total cpu time spent up to now is        1.7 secs

     total energy              =    -723.91545220 Ry
     estimated scf accuracy    <       0.00642587 Ry

     total magnetization       =     2.00 Bohr mag/cell
     absolute magnetization    =     2.21 Bohr mag/cell

     iteration #  6     ecut=    50.00 Ry     beta= 0.70
     Davidson diagonalization with overlap
     ethr =  1.75E-06,  avg # of iterations =  3.5

     total cpu time spent up to now is        1.8 secs

     total energy              =    -723.91616432 Ry
     estimated scf accuracy    <       0.00085761 Ry

     total magnetization       =     2.00 Bohr mag/cell
     absolute magnetization    =     2.23 Bohr mag/cell

     iteration #  7     ecut=    50.00 Ry     beta= 0.70
     Davidson diagonalization with overlap
     ethr =  3.38E-07,  avg # of iterations =  4.5

     total cpu time spent up to now is        2.0 secs

     total energy              =    -723.91645883 Ry
     estimated scf accuracy    <       0.00005800 Ry

     total magnetization       =     2.00 Bohr mag/cell
     absolute magnetization    =     2.25 Bohr mag/cell

     iteration #  8     ecut=    50.00 Ry     beta= 0.70
     Davidson diagonalization with overlap
     ethr =  2.28E-08,  avg # of iterations =  4.5

     total cpu time spent up to now is        2.1 secs

     total energy              =    -723.91647291 Ry
     estimated scf accuracy    <       0.00003831 Ry

     total magnetization       =     2.00 Bohr mag/cell
     absolute magnetization    =     2.27 Bohr mag/cell

     iteration #  9     ecut=    50.00 Ry     beta= 0.70
     Davidson diagonalization with overlap
     ethr =  1.51E-08,  avg # of iterations =  4.5

     total cpu time spent up to now is        2.3 secs

     total energy              =    -723.91648183 Ry
     estimated scf accuracy    <       0.00000660 Ry

     total magnetization       =     2.00 Bohr mag/cell
     absolute magnetization    =     2.27 Bohr mag/cell

     iteration # 10     ecut=    50.00 Ry     beta= 0.70
     Davidson diagonalization with overlap
     ethr =  2.60E-09,  avg # of iterations =  4.5

     total cpu time spent up to now is        2.4 secs

     total energy              =    -723.91648545 Ry
     estimated scf accuracy    <       0.00000140 Ry

     total magnetization       =     2.00 Bohr mag/cell
     absolute magnetization    =     2.28 Bohr mag/cell

     iteration # 11     ecut=    50.00 Ry     beta= 0.70
     Davidson diagonalization with overlap
     ethr =  5.53E-10,  avg # of iterations =  5.0

     total cpu time spent up to now is        2.6 secs

     total energy              =    -723.91648616 Ry
     estimated scf accuracy    <       0.00000021 Ry

     total magnetization       =     2.00 Bohr mag/cell
     absolute magnetization    =     2.29 Bohr mag/cell

     iteration # 12     ecut=    50.00 Ry     beta= 0.70
     Davidson diagonalization with overlap
     ethr =  8.31E-11,  avg # of iterations =  5.5

     total cpu time spent up to now is        2.8 secs

     total energy              =    -723.91648637 Ry
     estimated scf accuracy    <       0.00000003 Ry

     total magnetization       =     2.00 Bohr mag/cell
     absolute magnetization    =     2.29 Bohr mag/cell

     iteration # 13     ecut=    50.00 Ry     beta= 0.70
     Davidson diagonalization with overlap
     ethr =  1.33E-11,  avg # of iterations =  5.0

     total cpu time spent up to now is        2.9 secs

     total energy              =    -723.91648642 Ry
     estimated scf accuracy    <       0.00000001 Ry

     total magnetization       =     2.00 Bohr mag/cell
     absolute magnetization    =     2.29 Bohr mag/cell

     iteration # 14     ecut=    50.00 Ry     beta= 0.70
     Davidson diagonalization with overlap
     ethr =  4.59E-12,  avg # of iterations =  5.0

     Magnetic moment per site  (integrated on atomic sphere of radius R)
     atom   1 (R=0.085)  charge=  1.8063  magn=  0.0010
     atom   2 (R=0.085)  charge=  1.8000  magn=  0.0010
     atom   3 (R=0.085)  charge=  1.8074  magn=  0.0018
     atom   4 (R=0.085)  charge=  1.8034  magn= -0.0009
     atom   5 (R=0.085)  charge=  1.8074  magn=  0.0018
     atom   6 (R=0.085)  charge=  1.8034  magn= -0.0009
     atom   7 (R=0.085)  charge=  1.8074  magn=  0.0018
     atom   8 (R=0.085)  charge=  1.8034  magn= -0.0009
     atom   9 (R=0.085)  charge=  1.8018  magn=  0.0181
     atom  10 (R=0.085)  charge=  1.8211  magn=  0.0089
     atom  11 (R=0.085)  charge=  1.8022  magn=  0.0212
     atom  12 (R=0.085)  charge=  1.7966  magn= -0.0013
     atom  13 (R=0.085)  charge=  1.8022  magn=  0.0212
     atom  14 (R=0.085)  charge=  1.7966  magn= -0.0013
     atom  15 (R=0.085)  charge=  1.8135  magn=  0.0032
     atom  16 (R=0.085)  charge=  1.7826  magn= -0.0000
     atom  17 (R=0.085)  charge=  1.8018  magn=  0.0181
     atom  18 (R=0.085)  charge=  1.8211  magn=  0.0089
     atom  19 (R=0.085)  charge=  1.8022  magn=  0.0212
     atom  20 (R=0.085)  charge=  1.7966  magn= -0.0013
     atom  21 (R=0.085)  charge=  1.8135  magn=  0.0032
     atom  22 (R=0.085)  charge=  1.7826  magn= -0.0000
     atom  23 (R=0.085)  charge=  1.8022  magn=  0.0212
     atom  24 (R=0.085)  charge=  1.7966  magn= -0.0013
     atom  25 (R=0.085)  charge=  1.8028  magn=  0.0085
     atom  26 (R=0.085)  charge=  1.8097  magn= -0.0018
     atom  27 (R=0.085)  charge=  1.8017  magn=  0.0086
     atom  28 (R=0.085)  charge=  1.8028  magn= -0.0019
     atom  29 (R=0.085)  charge=  1.7958  magn=  0.0054
     atom  30 (R=0.085)  charge=  1.8044  magn= -0.0034
     atom  31 (R=0.085)  charge=  1.7958  magn=  0.0054
     atom  32 (R=0.085)  charge=  1.8044  magn= -0.0034
     atom  33 (R=0.085)  charge=  1.8018  magn=  0.0181
     atom  34 (R=0.085)  charge=  1.8211  magn=  0.0089
     atom  35 (R=0.085)  charge=  1.8135  magn=  0.0032
     atom  36 (R=0.085)  charge=  1.7826  magn= -0.0000
     atom  37 (R=0.085)  charge=  1.8022  magn=  0.0212
     atom  38 (R=0.085)  charge=  1.7966  magn= -0.0013
     atom  39 (R=0.085)  charge=  1.8022  magn=  0.0212
     atom  40 (R=0.085)  charge=  1.7966  magn= -0.0013
     atom  41 (R=0.085)  charge=  1.8028  magn=  0.0085
     atom  42 (R=0.085)  charge=  1.8097  magn= -0.0018
     atom  43 (R=0.085)  charge=  1.7958  magn=  0.0054
     atom  44 (R=0.085)  charge=  1.8044  magn= -0.0034
     atom  45 (R=0.085)  charge=  1.8017  magn=  0.0086
     atom  46 (R=0.085)  charge=  1.8028  magn= -0.0019
     atom  47 (R=0.085)  charge=  1.7958  magn=  0.0054
     atom  48 (R=0.085)  charge=  1.8044  magn= -0.0034
     atom  49 (R=0.085)  charge=  1.8028  magn=  0.0085
     atom  50 (R=0.085)  charge=  1.8097  magn= -0.0018
     atom  51 (R=0.085)  charge=  1.7958  magn=  0.0054
     atom  52 (R=0.085)  charge=  1.8044  magn= -0.0034
     atom  53 (R=0.085)  charge=  1.7958  magn=  0.0054
     atom  54 (R=0.085)  charge=  1.8044  magn= -0.0034
     atom  55 (R=0.085)  charge=  1.8017  magn=  0.0086
     atom  56 (R=0.085)  charge=  1.8028  magn= -0.0019
     atom  57 (R=0.085)  charge=  2.8991  magn=  0.0040
     atom  58 (R=0.085)  charge=  1.8143  magn=  0.2497
     atom  59 (R=0.085)  charge=  1.8127  magn= -0.0087
     atom  60 (R=0.085)  charge=  1.8143  magn=  0.2497
     atom  61 (R=0.085)  charge=  1.8128  magn= -0.0087
     atom  62 (R=0.085)  charge=  1.8143  magn=  0.2497
     atom  63 (R=0.085)  charge=  1.8128  magn= -0.0087

     total cpu time spent up to now is        3.1 secs

     End of self-consistent calculation

 ------ SPIN UP ------------


          k = 0.0000 0.0000 0.0000 (  7386 PWs)   bands (ev):

    -8.5722  -7.0210  -6.2688  -6.2688  -6.1635  -6.1635  -5.8849  -4.9471
    -4.1278  -4.1278  -4.0959  -4.0959  -4.0363  -4.0363  -3.9858  -3.9180
    -3.8684  -3.8684  -3.3632  -2.9608  -2.6749  -2.6749  -2.1195  -0.3633
    -0.3633  -0.3221  -0.2952  -0.0984   0.1805   0.1806   0.2861   0.2861
     0.3599   0.5990   0.8143   0.8143   0.9772   0.9772   1.0143   1.0400
     1.0400   1.0663   1.2940   1.2940   3.0463   3.8803   3.8803   4.0315
     4.2258   4.2258   4.2375   4.2422   4.2791   4.2791   4.4253   4.4253
     4.4931   4.4931   4.5943   4.6734   4.6804   4.6804   4.6834   4.7701
     4.7701   4.9021   4.9583   4.9583   5.0485   5.2190   5.2190   5.2923
     5.3626   5.3626   5.3999   5.4144   5.4144   6.0382   6.0382   6.0712
     6.6342   6.6342   6.7535   6.9960   7.0177   7.0177   7.5048   8.3226
     8.3226   8.4080   8.4832   8.4832   8.6617   8.6617   8.8173   8.8228
     8.8417   8.8417   8.8837   8.8837   8.9312   9.2949   9.2957   9.2957
     9.7088   9.7089   9.9212   9.9309   9.9309   9.9438   9.9685   9.9939
     9.9940   9.9940  10.0216  10.0216  10.1213  10.1213  10.2730  10.2730
    10.3426  10.9730  12.2105  12.4557  12.4557  13.8042  14.7825  14.7826

 ------ SPIN DOWN ----------


          k = 0.0000 0.0000 0.0000 (  7386 PWs)   bands (ev):

    -8.5488  -7.0066  -6.2494  -6.2494  -6.1216  -6.1216  -5.8482  -4.9312
    -4.1078  -4.1078  -4.0804  -4.0804  -3.9803  -3.9803  -3.9605  -3.9062
    -3.8225  -3.8225  -3.3197  -2.9429  -2.6208  -2.6208  -1.9788  -0.3464
    -0.3464  -0.3037  -0.2740  -0.0321   0.1962   0.1962   0.3212   0.3212
     0.3854   0.6314   0.8268   0.8268   1.0019   1.0019   1.0469   1.0553
     1.0553   1.0844   1.4654   1.4654   3.1609   3.9008   3.9008   4.0543
     4.2618   4.2618   4.2623   4.2750   4.2992   4.2992   4.4766   4.4766
     4.5117   4.5117   4.6212   4.6957   4.6963   4.6993   4.6993   4.8069
     4.8069   4.9140   4.9901   4.9901   5.1326   5.2529   5.2529   5.3160
     5.3737   5.3737   5.4123   5.4742   5.4742   6.0980   6.0980   6.1119
     6.6606   6.6606   6.7879   7.0388   7.1102   7.1102   7.6835   8.3605
     8.3605   8.4443   8.5158   8.5158   8.6921   8.6921   8.8541   8.8586
     8.8587   8.8698   8.9363   8.9363   8.9550   9.3222   9.3322   9.3322
     9.7379   9.7380   9.9378   9.9451   9.9451   9.9702   9.9951  10.0070
    10.0136  10.0136  10.0548  10.0548  10.1535  10.1535  10.3284  10.3284
    10.4039  11.3698  12.5174  12.6026  12.6026  14.2723  16.1446  16.1446

     highest occupied, lowest unoccupied level (ev):    14.7826   16.1446

!    total energy              =    -723.91648642 Ry
     estimated scf accuracy    <          3.9E-09 Ry

     The total energy is the sum of the following terms:
     one-electron contribution =     232.51964208 Ry
     hartree contribution      =      70.11339260 Ry
     xc contribution           =    -226.70020650 Ry
     ewald contribution        =    -799.84931460 Ry

     total magnetization       =     2.00 Bohr mag/cell
     absolute magnetization    =     2.29 Bohr mag/cell

     convergence has been achieved in  14 iterations

     Writing all to output data dir ./pwscf.save/ :
     XML data file, charge density, pseudopotentials, collected wavefunctions

     init_run     :      0.36s CPU      0.59s WALL (       1 calls)
     electrons    :      2.11s CPU      2.41s WALL (       1 calls)

     Called by init_run:
     wfcinit      :      0.08s CPU      0.18s WALL (       1 calls)
     potinit      :      0.02s CPU      0.03s WALL (       1 calls)
     hinit0       :      0.25s CPU      0.30s WALL (       1 calls)

     Called by electrons:
     c_bands      :      1.50s CPU      1.77s WALL (      14 calls)
     sum_band     :      0.25s CPU      0.25s WALL (      14 calls)
     v_of_rho     :      0.06s CPU      0.07s WALL (      15 calls)
     mix_rho      :      0.22s CPU      0.24s WALL (      14 calls)

     Called by c_bands:
     init_us_2    :      0.07s CPU      0.07s WALL (      58 calls)
     regterg      :      1.25s CPU      1.51s WALL (      28 calls)

     Called by *egterg:
     rdiaghg      :      0.55s CPU      0.61s WALL (     176 calls)
                                        0.61s GPU  (     176 calls)
     h_psi        :      0.51s CPU      0.76s WALL (     178 calls)
     g_psi        :      0.00s CPU      0.00s WALL (     148 calls)

     Called by h_psi:
     h_psi:calbec :      0.02s CPU      0.06s WALL (     178 calls)
     vloc_psi     :      0.38s CPU      0.58s WALL (     178 calls)
                                        0.58s GPU  (     178 calls)
     add_vuspsi   :      0.09s CPU      0.10s WALL (     178 calls)

     General routines
     calbec       :      0.02s CPU      0.06s WALL (     178 calls)
     fft          :      0.01s CPU      0.05s WALL (     194 calls)
                                        0.05s GPU  (     194 calls)
     ffts         :      0.00s CPU      0.00s WALL (      14 calls)
                                        0.00s GPU  (      14 calls)
     fftw         :      0.05s CPU      0.52s WALL (    2744 calls)
                                        0.50s GPU  (    2744 calls)

     Parallel routines

     PWSCF        :      2.51s CPU      3.15s WALL


   This run was terminated on:  15:17:40  22Apr2026

=------------------------------------------------------------------------------=
   JOB DONE.
=------------------------------------------------------------------------------=
